<VTKFile type="UnstructuredGrid" version="0.1" byte_order="LittleEndian">
	<UnstructuredGrid>
		<Piece NumberOfPoints="20108" NumberOfCells="12936">
			<PointData Scalars="scalars">
				<DataArray type="Float32" Name="scalar" Format="ascii">
0.044499
0.037736
0.034283
0.035353
0.039144
0.057395
0.051466
0.061111
0.036825
0.043591
0.047256
0.053934
0.040719
0.036549
0.051065
0.045704
0.039660
0.046035
0.044039
0.055069
0.055243
0.050277
0.058094
0.035193
0.045674
0.048386
0.052297
0.056850
0.049508
0.049618
0.060509
0.040494
0.040094
0.045453
0.040977
0.044909
0.049745
0.050757
0.042017
0.041780
0.038120
0.039009
0.038567
0.041431
0.035803
0.034513
0.038908
0.039451
0.036916
0.042733
0.046332
0.030889
0.053053
0.025857
0.040631
0.031960
0.027556
0.041479
0.029865
0.038873
0.034665
0.034587
0.030711
0.031939
0.033910
0.051928
0.047150
0.046074
0.044801
0.038683
0.041144
0.036833
0.035910
0.032951
0.029513
0.032789
0.027514
0.028753
0.042086
0.033766
0.032795
0.030860
0.033778
0.048764
0.046602
0.037518
0.039067
0.039350
0.034657
0.028951
0.027664
0.030424
0.027634
0.026772
0.030990
0.030501
0.032738
0.032026
0.031335
0.035529
0.032806
0.032079
0.029922
0.035398
0.033489
0.030400
0.032052
0.032062
0.030774
0.031731
0.028903
0.029838
0.030516
0.028690
0.027350
0.027946
0.030625
0.031446
0.033161
0.028882
0.029540
0.031919
0.031147
0.033679
0.032468
0.030387
0.031842
0.033156
0.034872
0.033096
0.035886
0.029636
0.031212
0.032063
0.030626
0.030907
0.030926
0.031386
0.030049
0.044625
0.041842
0.033032
0.032795
0.038549
0.037746
0.043645
0.036041
0.040998
0.029663
0.036533
0.034071
0.031278
0.042336
0.034847
0.043300
0.027685
0.037202
0.048464
0.050955
0.073033
0.095144
0.056063
0.090100
0.065300
0.052603
0.080360
0.088784
0.082450
0.070266
0.066584
0.071244
0.063444
0.056185
0.068513
0.075617
0.075803
0.063684
0.059656
0.076539
0.062262
0.057350
0.054583
0.062105
0.055179
0.053610
0.049475
0.049624
0.047494
0.050219
0.056215
0.059145
0.074811
0.060356
0.061616
0.062179
0.068849
0.057478
0.069485
0.059525
0.053803
0.048428
0.054705
0.052335
0.047849
0.055502
0.060330
0.068507
0.063455
0.055511
0.061016
0.056374
0.068165
0.078747
0.078605
0.091635
0.087833
0.068826
0.071876
0.069166
0.059182
0.064402
0.039129
0.034766
0.039308
0.035138
0.035485
0.040832
0.040339
0.038542
0.042153
0.037450
0.033967
0.041071
0.042082
0.038387
0.037159
0.034651
0.035495
0.038215
0.036849
0.037327
0.039737
0.035020
0.036131
0.040848
0.039925
0.038923
0.038090
0.038097
0.036207
0.033839
0.033329
0.033997
0.035960
0.032694
0.034423
0.043397
0.052060
0.049101
0.053664
0.051694
0.046739
0.050440
0.048868
0.043607
0.047827
0.043996
0.042317
0.038806
0.037117
0.042623
0.040631
0.054250
0.044142
0.070555
0.041935
0.037673
0.038429
0.044456
0.047508
0.040633
0.051634
0.045570
0.046718
0.046113
0.054172
0.057265
0.049807
0.050458
0.049052
0.042467
0.041086
0.063681
0.055320
0.061441
0.058432
0.033406
0.038373
0.034070
0.037298
0.038073
0.033010
0.026017
0.029155
0.026849
0.028367
0.025759
0.027907
0.026252
0.077607
0.056047
0.065288
0.074469
0.062497
0.069367
0.049976
0.049029
0.056879
0.074265
0.059238
0.062269
0.048944
0.054798
0.050267
0.061215
0.019656
0.021759
0.020914
0.022947
0.018310
0.019803
0.019061
0.021180
0.022890
0.025039
0.026479
0.024305
0.022505
0.019820
0.023474
0.022367
0.021651
0.018862
0.018647
0.020359
0.020115
0.021928
0.020715
0.022468
0.018440
0.024142
0.024601
0.018579
0.025682
0.024818
0.045461
0.030165
0.036980
0.050717
0.044156
0.036401
0.042854
0.044403
0.033388
0.031391
0.036438
0.032602
0.037618
0.038065
0.040247
0.031833
0.033428
0.031318
0.028899
0.032501
0.029646
0.030145
0.031408
0.027942
0.028023
0.031920
0.023241
0.016580
0.027294
0.028937
0.023194
0.027230
0.031265
0.028165
0.035497
0.028248
0.027614
0.018161
0.024591
0.021370
0.024990
0.022326
0.022629
0.024319
0.026361
0.026640
0.021094
0.019828
0.021553
0.018076
0.025922
0.020547
0.037214
0.032723
0.035029
0.030107
0.028452
0.043027
0.043541
0.041594
0.037599
0.055909
0.037526
0.051147
0.024286
0.023788
0.023108
0.025644
0.026514
0.028892
0.027560
0.025701
0.026540
0.028755
0.033348
0.052457
0.037574
0.053566
0.040003
0.029690
0.036269
0.029279
0.032640
0.039293
0.051088
0.057505
0.043922
0.037527
0.043324
0.057378
0.046970
0.053946
0.039288
0.045497
0.045768
0.036796
0.040949
0.036945
0.033014
0.048319
0.042882
0.049722
0.033041
0.038161
0.034265
0.031823
0.029615
0.033117
0.028425
0.019343
0.018494
0.023688
0.022807
0.027375
0.028749
0.028340
0.028123
0.023340
0.019450
0.021502
0.025081
0.025337
0.023662
0.026745
0.025069
0.024653
0.021427
0.018494
0.022852
0.023507
0.022726
0.030484
0.026806
0.021423
0.017336
0.019675
0.019380
0.019379
0.018716
0.023861
0.020566
0.028368
0.026637
0.026910
0.027994
0.025173
0.028701
0.022477
0.022370
0.024668
0.022721
0.025995
0.018947
0.029327
0.030292
0.035028
0.028846
0.029960
0.030860
0.029161
0.029948
0.029269
0.030338
0.029299
0.030524
0.029049
0.030180
0.030110
0.028611
0.029641
0.030457
0.032517
0.027816
0.032486
0.032343
0.029150
0.028830
0.032489
0.031383
0.030091
0.026406
0.031445
0.029693
0.033840
0.027017
0.034326
0.026546
0.028043
0.025591
0.029834
0.029377
0.030417
0.030858
0.033583
0.032952
0.033063
0.036263
0.035328
0.025976
0.025801
0.028987
0.030062
0.028566
0.026710
0.025960
0.028885
0.027887
0.029596
0.030072
0.027958
0.025502
0.026545
0.027623
0.028676
0.029268
0.029682
0.030526
0.030843
0.029707
0.024824
0.024069
0.023875
0.031552
0.028788
0.026421
0.026364
0.034698
0.027901
0.028444
0.029223
0.030986
0.033286
0.032735
0.031247
0.030131
0.031242
0.029273
0.030814
0.029536
0.030355
0.032604
0.024524
0.038663
0.034124
0.033320
0.028059
0.038313
0.034976
0.040040
0.023072
0.021951
0.028191
0.031696
0.028036
0.032181
0.033960
0.039901
0.034318
0.044303
0.067575
0.036738
0.063257
0.069177
0.046434
0.051437
0.030735
0.038251
0.039857
0.052800
0.045845
0.053779
0.054427
0.037311
0.043028
0.032617
0.052332
0.053462
0.048002
0.038907
0.041689
0.045373
0.045819
0.039941
0.035605
0.030382
0.041168
0.039119
0.028009
0.036938
0.034337
0.038238
0.038494
0.032743
0.030670
0.036882
0.032275
0.035811
0.033842
0.024292
0.026676
0.030237
0.150133
0.076444
0.088959
0.114263
0.097967
0.122021
0.081487
0.105079
0.091696
0.077939
0.110782
0.088863
0.080893
0.082757
0.076260
0.055769
0.123121
0.124178
0.107812
0.088208
0.092038
0.095743
0.086039
0.107622
0.117892
0.105618
0.093280
0.113964
0.125886
0.149797
0.151109
0.103632
0.142954
0.075839
0.056624
0.084081
0.070232
0.061156
0.064173
0.065119
0.054192
0.057514
0.062554
0.054336
0.050065
0.077682
0.061818
0.153321
0.182283
0.111267
0.083982
0.131298
0.110239
0.096656
0.120357
0.102283
0.101039
0.080249
0.093347
0.120670
0.157388
0.080134
0.190880
0.188249
0.186066
0.148224
0.123304
0.114861
0.096531
0.072395
0.091940
0.064107
0.073767
0.071449
0.059692
0.056313
0.064796
0.065667
0.060172
0.054563
0.064696
0.109469
0.095935
0.062983
0.050430
0.101904
0.082730
0.076229
0.088243
0.090668
0.077428
0.077312
0.082280
0.062638
0.084094
0.049805
0.051630
0.062127
0.063726
0.061403
0.075201
0.084752
0.065528
0.078837
0.101916
0.116836
0.098102
0.048749
0.077172
0.054102
0.048756
0.051412
0.046941
0.054596
0.055513
0.096164
0.081243
0.069142
0.069816
0.064323
0.058310
0.062860
0.057842
0.057644
0.081326
0.072247
0.052936
0.047677
0.114155
0.115591
0.098543
0.125981
0.092156
0.096008
0.083011
0.037918
0.042696
0.044451
0.037275
0.042957
0.041522
0.041799
0.047330
0.045550
0.039133
0.036550
0.038040
0.043072
0.041938
0.043242
0.040738
0.038558
0.040364
0.040909
0.035994
0.034803
0.033192
0.034795
0.032377
0.037543
0.035661
0.035789
0.032746
0.035041
0.034313
0.034143
0.037471
0.031431
0.032621
0.044298
0.043433
0.042623
0.044243
0.041393
0.043377
0.040264
0.039406
0.043800
0.041904
0.040596
0.042589
0.036925
0.036115
0.031799
0.035799
0.038587
0.034398
0.036339
0.033588
0.031187
0.036940
0.029932
0.037482
0.031127
0.033569
0.034339
0.035229
0.047513
0.041695
0.038249
0.046432
0.049918
0.045706
0.044010
0.049196
0.043753
0.041768
0.037130
0.040476
0.040193
0.038199
0.043922
0.042418
0.044751
0.039851
0.041946
0.036713
0.043815
0.033541
0.049111
0.048901
0.045126
0.043564
0.041982
0.047764
0.038715
0.034889
0.034687
0.038567
0.039854
0.040030
0.051807
0.052943
0.049413
0.050983
0.047029
0.056332
0.054739
0.047808
0.035967
0.037095
0.042965
0.048139
0.044402
0.038832
0.038656
0.034022
0.037324
0.036548
0.035337
0.038212
0.038407
0.035797
0.036060
0.032685
0.040945
0.043875
0.027401
0.035724
0.028367
0.030715
0.023117
0.019461
0.023247
0.024078
0.024266
0.024085
0.028693
0.023082
0.022201
0.019742
0.021246
0.023231
0.021745
0.021213
0.023005
0.024317
0.097518
0.081016
0.068376
0.106276
0.091235
0.117141
0.111764
0.089471
0.108033
0.084962
0.070827
0.074711
0.059518
0.081614
0.076907
0.055327
0.094932
0.104560
0.057611
0.065660
0.110242
0.101276
0.090333
0.105476
0.054557
0.066172
0.064321
0.059158
0.078371
0.079768
0.071480
0.074045
0.083603
0.080877
0.064677
0.081260
0.072235
0.055586
0.074553
0.060208
0.083182
0.014624
0.013959
0.010646
0.015257
0.012609
0.013233
0.011310
0.016304
0.016178
0.016588
0.016500
0.015682
0.017760
0.017176
0.014896
0.016317
0.015853
0.013773
0.014737
0.013337
0.016022
0.014845
0.016314
0.021006
0.018871
0.016902
0.017698
0.016221
0.018284
0.018915
0.022255
0.019933
0.021111
0.017291
0.017835
0.023972
0.015842
0.014818
0.017684
0.019044
0.017247
0.016617
0.027542
0.018281
0.026449
0.028272
0.021281
0.022093
0.019892
0.017262
0.020579
0.018261
0.020964
0.017179
0.025135
0.024256
0.025659
0.014529
0.014673
0.014535
0.011644
0.016822
0.021227
0.023313
0.013614
0.014635
0.020472
0.016533
0.014719
0.015537
0.018232
0.014276
0.017504
0.021265
0.024505
0.022267
0.022929
0.021599
0.025473
0.018964
0.021186
0.022727
0.025267
0.014139
0.048084
0.052311
0.046375
0.047718
0.050503
0.052145
0.038824
0.043473
0.048014
0.042098
0.028198
0.024361
0.024678
0.023223
0.027260
0.024090
0.023019
0.027917
0.031315
0.025571
0.028323
0.026044
0.026742
0.028871
0.027745
0.033284
0.030333
0.035115
0.032834
0.036749
0.038750
0.031398
0.034522
0.028875
0.029775
0.031459
0.032952
0.029326
0.030346
0.038209
0.032558
0.030353
0.026611
0.017230
0.027024
0.018022
0.028451
0.024319
0.019007
0.029418
0.022872
0.016180
0.015705
0.023992
0.018256
0.023933
0.020917
0.020177
0.015619
0.017053
0.009248
0.020272
0.010610
0.021619
0.015189
0.016976
0.016397
0.012737
0.012979
0.013617
0.012208
0.009084
0.010051
0.013491
0.023543
0.032503
0.022815
0.028273
0.026383
0.026688
0.024083
0.030000
0.032502
0.027504
0.026217
0.027122
0.031965
0.023390
0.037122
0.035980
0.049765
0.042731
0.047231
0.043580
0.048824
0.036246
0.040802
0.051012
0.052782
0.039561
0.037717
0.048942
0.034234
0.060217
0.028884
0.021791
0.016740
0.028270
0.029872
0.022103
0.019032
0.021164
0.019515
0.019155
0.020635
0.019969
0.022904
0.017518
0.024665
0.026554
0.025722
0.026564
0.028884
0.032669
0.030018
0.025233
0.025486
0.025101
0.028480
0.029550
0.030867
0.031053
0.032496
0.033940
0.031719
0.030749
0.038579
0.037654
0.034455
0.037902
0.033312
0.033914
0.030336
0.028342
0.029170
0.065096
0.075069
0.080822
0.075775
0.050322
0.070198
0.078217
0.069437
0.080607
0.088634
0.086459
0.087142
0.038165
0.037659
0.061222
0.035837
0.036440
0.051797
0.048271
0.068118
0.064538
0.058364
0.062306
0.056622
0.066913
0.070296
0.046180
0.052200
0.047684
0.067929
0.059632
0.036615
0.041186
0.034616
0.029982
0.031672
0.035005
0.041002
0.036709
0.041068
0.039860
0.042720
0.048527
0.044626
0.043605
0.049940
0.057979
0.084691
0.046189
0.065111
0.050797
0.063059
0.065819
0.042849
0.048471
0.060743
0.056829
0.034533
0.038581
0.038827
0.054363
0.046057
0.022515
0.026615
0.000000
0.000000
0.000000
0.015379
0.015267
0.019141
0.019739
0.018706
0.017734
0.015559
0.013728
0.012651
0.018508
0.016016
0.014305
0.014951
0.016226
0.000000
0.015592
0.015421
0.010839
0.013946
0.000000
0.011102
0.009985
0.016298
0.007475
0.011544
0.015050
0.012825
0.015634
0.014500
0.021663
0.023643
0.025566
0.021998
0.021577
0.019287
0.014652
0.018467
0.015987
0.018495
0.020931
0.024599
0.017505
0.021585
0.024944
0.029060
0.024145
0.023611
0.023858
0.027240
0.020137
0.021567
0.023695
0.024666
0.026271
0.027467
0.028444
0.028933
0.030186
0.031871
0.029190
0.030618
0.029014
0.018661
0.022698
0.018758
0.021411
0.022288
0.022137
0.020297
0.023691
0.025711
0.028875
0.019622
0.022697
0.007466
0.008737
0.007738
0.011810
0.009486
0.030520
0.031088
0.029175
0.026351
0.029215
0.031401
0.032092
0.033258
0.034603
0.036951
0.042725
0.038007
0.040781
0.040095
0.030720
0.036078
0.038767
0.037773
0.039217
0.037020
0.033030
0.035181
0.040064
0.039122
0.036369
0.033292
0.033546
0.026442
0.017987
0.024836
0.027758
0.023077
0.028878
0.026331
0.022122
0.017235
0.020864
0.022749
0.019461
0.034391
0.030940
0.034343
0.031294
0.034423
0.000000
0.022512
0.029725
0.027106
0.028756
0.021762
0.024384
0.022243
0.000000
0.015658
0.025829
0.021947
0.030385
0.034411
0.027420
0.029997
0.031165
0.028681
0.068171
0.040018
0.045729
0.068423
0.060892
0.037691
0.047512
0.031482
0.033863
0.040834
0.051467
0.052834
0.053150
0.052839
0.042278
0.044649
0.034561
0.041935
0.047696
0.045920
0.050924
0.042007
0.047256
0.039295
0.036029
0.029790
0.000000
0.000000
0.055664
0.060529
0.045379
0.037327
0.000000
0.043282
0.058973
0.045101
0.054710
0.047484
0.041490
0.037306
0.000000
0.080712
0.075363
0.086348
0.094535
0.072121
0.075955
0.090141
0.077204
0.062078
0.068937
0.049504
0.040158
0.031049
0.026771
0.038414
0.046021
0.035149
0.034259
0.057382
0.074764
0.076680
0.063950
0.063506
0.049391
0.055595
0.053005
0.055392
0.059773
0.063459
0.063501
0.075438
0.063303
0.076677
0.077548
0.074959
0.060063
0.042830
0.046844
0.046717
0.044220
0.045334
0.045539
0.044621
0.041952
0.046652
0.043830
0.044964
0.043299
0.044711
0.041588
0.045496
0.043221
0.042756
0.038869
0.038795
0.033144
0.043169
0.041830
0.032392
0.031984
0.036877
0.039863
0.038264
0.033662
0.031324
0.036952
0.034709
0.038249
0.038918
0.029487
0.031156
0.036320
0.030841
0.035671
0.032817
0.031469
0.168038
0.271956
0.158589
0.251744
0.206885
0.123634
0.213209
0.236197
0.209198
0.200953
0.194169
0.265380
0.181218
0.255450
0.163861
0.216514
0.217480
0.173039
0.164292
0.167699
0.196469
0.148913
0.128280
0.159700
0.161192
0.151183
0.083335
0.102205
0.117769
0.095492
0.101492
0.096422
0.082218
0.098050
0.074567
0.100564
0.070997
0.063216
0.154266
0.114863
0.148580
0.131889
0.170863
0.105867
0.119593
0.172910
0.229200
0.306602
0.143329
0.121098
0.128830
0.272451
0.255037
0.214131
0.299234
0.181590
0.213153
0.148251
0.172284
0.130807
0.153924
0.175833
0.180398
0.181832
0.187018
0.144469
0.143087
0.142477
0.113354
0.168055
0.160165
0.157116
0.201949
0.207886
0.195203
0.115239
0.093071
0.115176
0.117030
0.146261
0.098797
0.117352
0.108490
0.087896
0.099388
0.104742
0.131859
0.164658
0.075147
0.123318
0.132402
0.155462
0.072340
0.105116
0.140982
0.131094
0.152186
0.136612
0.105867
0.110856
0.076996
0.101526
0.075394
0.065767
0.073339
0.087512
0.104449
0.118825
0.100579
0.095425
0.098793
0.100776
0.125241
0.091812
0.090466
0.119694
0.123436
0.146919
0.053519
0.067489
0.061187
0.054008
0.061749
0.060324
0.055116
0.049714
0.050602
0.050897
0.055904
0.047783
0.096099
0.152817
0.150959
0.125150
0.100628
0.119450
0.127179
0.227822
0.131560
0.113635
0.147904
0.127614
0.143542
0.153927
0.093065
0.110761
0.098587
0.120711
0.142782
0.110474
0.110896
0.093502
0.084795
0.106302
0.091698
0.102113
0.084871
0.097197
0.088694
0.089424
0.117731
0.081986
0.076824
0.076471
0.055320
0.057780
0.057256
0.075369
0.074475
0.091907
0.082425
0.064968
0.065552
0.067108
0.061650
0.069000
0.061638
0.064947
0.060319
0.063371
0.064298
0.053564
0.060988
0.062492
0.057423
0.050985
0.053386
0.055410
0.055106
0.097050
0.060727
0.054121
0.059750
0.107127
0.101526
0.097208
0.076055
0.075398
0.073146
0.049400
0.061103
0.061256
0.061091
0.073603
0.082239
0.102800
0.053106
0.077833
0.046862
0.160121
0.210472
0.124233
0.117172
0.153517
0.140867
0.115568
0.215408
0.152329
0.145783
0.131031
0.190525
0.219761
0.152005
0.146153
0.151189
0.056000
0.065934
0.057272
0.036223
0.060745
0.060259
0.046279
0.055039
0.055760
0.055519
0.062526
0.061964
0.056110
0.054685
0.058972
0.052409
0.049140
0.040518
0.041864
0.039558
0.046891
0.044876
0.035942
0.051404
0.044596
0.038867
0.048910
0.052349
0.057593
0.060953
0.060369
0.073124
0.071290
0.063817
0.067980
0.092378
0.076693
0.088370
0.075522
0.070769
0.070852
0.065368
0.067780
0.065866
0.066912
0.059706
0.066230
0.092608
0.125281
0.089033
0.092832
0.082159
0.068250
0.062851
0.070767
0.069010
0.078136
0.071180
0.065328
0.102181
0.058675
0.086024
0.083420
0.133306
0.084893
0.102063
0.080452
0.079233
0.075418
0.086425
0.076069
0.136716
0.104554
0.138519
0.107686
0.036750
0.040170
0.043218
0.041898
0.038843
0.042063
0.037783
0.036842
0.037016
0.034655
0.034724
0.039233
0.039767
0.047914
0.047428
0.047751
0.046138
0.046644
0.046489
0.046140
0.045129
0.045395
0.045262
0.045197
0.046842
0.047920
0.049155
0.038297
0.032745
0.039871
0.036112
0.034494
0.048535
0.049268
0.049119
0.046503
0.048099
0.049006
0.046753
0.048148
0.046117
0.043879
0.046090
0.047737
0.048492
0.047789
0.051303
0.038269
0.043889
0.045745
0.054751
0.052110
0.044130
0.050029
0.039757
0.040990
0.043566
0.043159
0.045307
0.047201
0.049602
0.049065
0.050125
0.054112
0.051243
0.051977
0.051720
0.045904
0.048677
0.046079
0.046280
0.044100
0.047058
0.042952
0.042439
0.046664
0.048553
0.044038
0.048323
0.039282
0.040472
0.037546
0.037005
0.040899
0.041223
0.048058
0.043912
0.050432
0.048182
0.049406
0.047109
0.034397
0.032263
0.032159
0.034635
0.031674
0.030800
0.036175
0.035599
0.034861
0.033987
0.033204
0.031330
0.031892
0.033681
0.035110
0.031708
0.033071
0.031628
0.030430
0.027698
0.028959
0.050391
0.050554
0.058427
0.044449
0.040740
0.053940
0.053462
0.039825
0.043310
0.045125
0.053788
0.058563
0.058021
0.050096
0.045715
0.036441
0.039451
0.039086
0.036671
0.035455
0.047655
0.043509
0.051791
0.047603
0.049656
0.049418
0.044791
0.044615
0.040031
0.030150
0.023468
0.034907
0.037718
0.031473
0.024496
0.026366
0.028224
0.023091
0.025019
0.029027
0.028576
0.031780
0.053180
0.051771
0.050897
0.055773
0.049335
0.052679
0.062066
0.060310
0.049875
0.052856
0.033142
0.034191
0.031407
0.036489
0.036341
0.039009
0.037009
0.035427
0.033218
0.035955
0.040287
0.042047
0.042677
0.014841
0.059931
0.211460
0.165460
0.133090
0.130690
0.189474
0.204701
0.222402
0.218551
0.086804
0.138785
0.113347
0.068762
0.131540
0.145430
0.070297
0.075485
0.057673
0.071429
0.058569
0.159345
0.063219
0.092307
0.081676
0.083375
0.081334
0.085835
0.078507
0.081925
0.077553
0.097870
0.096844
0.086250
0.119741
0.104007
0.169873
0.104904
0.125691
0.097321
0.100131
0.098378
0.119723
0.113862
0.188142
0.120658
0.065309
0.071109
0.092076
0.086709
0.065288
0.068434
0.068633
0.073574
0.070009
0.077443
0.110747
0.101837
0.096638
0.105119
0.159494
0.012186
0.007111
0.005565
0.008764
0.010587
0.009775
0.006219
0.010661
0.013720
0.013039
0.009314
0.008036
0.007112
0.007756
0.007412
0.013781
0.010347
0.009959
0.010297
0.008724
0.011916
0.013247
0.012854
0.009981
0.008529
0.011579
0.013184
0.012611
0.010485
0.005525
0.010983
0.010149
0.013073
0.010352
0.013462
0.007166
0.005509
0.007824
0.007897
0.006530
0.008701
0.007844
0.013253
0.009252
0.015343
0.010615
0.010211
0.013313
0.015937
0.018651
0.015929
0.015945
0.013246
0.013988
0.013035
0.019152
0.018972
0.015788
0.005415
0.010612
0.007757
0.013662
0.009338
0.011211
0.012266
0.009308
0.007249
0.006267
0.007208
0.012639
0.009997
0.012365
0.009113
0.008117
0.007633
0.006542
0.005941
0.020364
0.013213
0.016271
0.021013
0.024319
0.021266
0.019221
0.020518
0.014746
0.018362
0.017378
0.014699
0.011897
0.015010
0.028787
0.013070
0.011819
0.010699
0.018832
0.015026
0.018230
0.023290
0.023410
0.023636
0.016703
0.017902
0.017894
0.014224
0.015798
0.017917
0.013953
0.016731
0.018472
0.018412
0.021140
0.021816
0.019894
0.019870
0.020604
0.020262
0.024895
0.020908
0.024049
0.025828
0.021710
0.017116
0.047159
0.044769
0.040712
0.056187
0.055991
0.050476
0.048349
0.049526
0.047620
0.048257
0.044275
0.042014
0.043381
0.037771
0.056138
0.049844
0.042469
0.043801
0.046498
0.042298
0.037639
0.035030
0.024991
0.019926
0.017809
0.022259
0.022662
0.027681
0.028471
0.025348
0.026536
0.022312
0.023508
0.030001
0.028604
0.030802
0.022885
0.018618
0.023468
0.023004
0.019613
0.022238
0.027814
0.027317
0.026771
0.018619
0.032589
0.023287
0.030257
0.024779
0.020740
0.027051
0.025703
0.025048
0.032234
0.028972
0.033645
0.036690
0.033929
0.038947
0.021898
0.027533
0.029909
0.026863
0.033197
0.021831
0.037485
0.029718
0.032058
0.030421
0.034635
0.038319
0.031832
0.022280
0.024734
0.025146
0.021816
0.021072
0.024683
0.020609
0.023993
0.024668
0.028530
0.026961
0.030602
0.027730
0.024354
0.031106
0.034833
0.033824
0.036813
0.043643
0.043334
0.019980
0.000000
0.015760
0.016616
0.012695
0.019848
0.012647
0.015374
0.016439
0.016724
0.017868
0.024715
0.030589
0.022353
0.011970
0.017344
0.020834
0.007644
0.024960
0.014510
0.014146
0.006800
0.008274
0.011885
0.011161
0.014545
0.013952
0.011630
0.010394
0.020335
0.017474
0.021241
0.027920
0.023941
0.018448
0.023044
0.026379
0.021228
0.002256
0.007134
0.004715
0.004106
0.003042
0.004800
0.004757
0.003353
0.004356
0.007026
0.012064
0.008277
0.004714
0.009854
0.037332
0.024909
0.026502
0.033055
0.026069
0.021968
0.024923
0.023597
0.018351
0.023730
0.029926
0.034771
0.030465
0.048391
0.063726
0.053407
0.050066
0.050138
0.041421
0.063402
0.046114
0.070300
0.074889
0.064108
0.058288
0.051283
0.057590
0.045038
0.043878
0.048389
0.035840
0.039110
0.042270
0.036900
0.025316
0.030386
0.037381
0.035402
0.033961
0.031815
0.024530
0.023821
0.032946
0.031309
0.029347
0.026905
0.027120
0.028338
0.030433
0.015932
0.016250
0.019146
0.019415
0.015637
0.015860
0.021559
0.013655
0.013342
0.034495
0.044555
0.035541
0.044841
0.035363
0.023471
0.024856
0.028897
0.027371
0.052050
0.040023
0.017109
0.041306
0.023502
0.055893
0.039894
0.025662
0.031805
0.028564
0.023117
0.020261
0.017749
0.013113
0.029984
0.015413
0.031383
0.018305
0.127293
0.122737
0.056551
0.061356
0.062529
0.035410
0.038922
0.069262
0.052866
0.095116
0.081754
0.095402
0.054048
0.076912
0.061880
0.054987
0.069781
0.064904
0.051766
0.068441
0.062997
0.067012
0.040361
0.076940
0.085089
0.062013
0.069664
0.072433
0.066077
0.063386
0.076992
0.072264
0.078381
0.088634
0.129358
0.088194
0.062854
0.056579
0.030489
0.054113
0.037917
0.066752
0.039543
0.050137
0.058492
0.052191
0.083781
0.069527
0.067348
0.065461
0.139348
0.186867
0.108108
0.204850
0.168712
0.120214
0.153645
0.190005
0.143814
0.138230
0.130423
0.124715
0.107799
0.101338
0.181405
0.102457
0.084491
0.092968
0.160708
0.175154
0.074377
0.094019
0.067648
0.050320
0.087386
0.060899
0.072296
0.048267
0.047295
0.026465
0.031517
0.020237
0.033671
0.037367
0.041213
0.037285
0.035395
0.023595
0.100586
0.086912
0.028641
0.009179
0.041917
0.033780
0.040633
0.061190
0.033666
0.053619
0.036784
0.046631
0.066572
0.051233
0.092847
0.073687
0.038437
0.035246
0.053568
0.066106
0.053595
0.015848
0.036614
0.037311
0.051900
0.017734
0.016241
0.008206
0.025602
0.019737
0.044208
0.075862
0.065923
0.017435
0.013010
0.014892
0.013131
0.011579
0.009805
0.018035
0.000000
0.000000
0.000000
0.006756
0.000000
0.007253
0.006401
0.006738
0.009881
0.009044
0.007133
0.020384
0.017358
0.015761
0.021620
0.017345
0.022667
0.017147
0.017225
0.017715
0.016298
0.016463
0.022413
0.000000
0.016294
0.011779
0.013781
0.017390
0.012849
0.000000
0.012024
0.009081
0.015767
0.032349
0.018984
0.034176
0.025600
0.026325
0.025374
0.025070
0.024402
0.024023
0.027214
0.025502
0.025919
0.027523
0.021867
0.027691
0.023644
0.023420
0.022005
0.018222
0.027123
0.007368
0.034086
0.020933
0.030378
0.034478
0.027555
0.017677
0.021385
0.016221
0.029548
0.026908
0.029370
0.031915
0.034748
0.026750
0.024019
0.020052
0.027731
0.020746
0.022155
0.030551
0.012190
0.021606
0.035135
0.000000
0.023686
0.018026
0.040729
0.034706
0.031755
0.032625
0.033922
0.029476
0.025143
0.021847
0.020155
0.024052
0.026507
0.029018
0.026447
0.036565
0.054339
0.045595
0.052020
0.046473
0.044145
0.049373
0.052384
0.048880
0.043749
0.047589
0.044541
0.044316
0.044144
0.041737
0.039689
0.048828
0.045077
0.053091
0.042947
0.050571
0.053147
0.044134
0.051770
0.049510
0.042982
0.053252
0.041192
0.043004
0.045729
0.039639
0.052117
0.042992
0.038083
0.048288
0.000000
0.014413
0.016561
0.000000
0.019425
0.021765
0.029233
0.040950
0.030824
0.039834
0.091713
0.071721
0.058720
0.098783
0.080456
0.085847
0.087696
0.068570
0.084392
0.071261
0.057025
0.076080
0.072764
0.062265
0.058822
0.050497
0.049355
0.053456
0.063463
0.050945
0.041353
0.042046
0.050851
0.049651
0.048416
0.061789
0.057755
0.049839
0.032251
0.057985
0.043030
0.056088
0.049789
0.070075
0.068063
0.053752
0.063623
0.038625
0.050126
0.037664
0.044358
0.000000
0.068793
0.087609
0.073658
0.058700
0.041822
0.050337
0.075995
0.000000
0.050343
0.066241
0.091020
0.088108
0.087245
0.084557
0.082952
0.076467
0.066981
0.078805
0.059587
0.050884
0.059608
0.073439
0.070295
0.073219
0.099001
0.092694
0.103766
0.102005
0.048443
0.078772
0.050237
0.070372
0.053950
0.060904
0.076960
0.061740
0.053454
0.080167
0.063654
0.074764
0.073719
0.085345
0.077757
0.083601
0.062771
0.065735
0.113491
0.101127
0.105612
0.123436
0.108399
0.107140
0.092421
0.108193
0.090059
0.125841
0.101381
0.125524
0.086862
0.079680
0.113771
0.046732
0.041246
0.048369
0.046154
0.045731
0.048613
0.044366
0.035185
0.057783
0.045905
0.051761
0.050293
0.051100
0.050496
0.046976
0.044523
0.046392
0.054669
0.052675
0.046842
0.045798
0.049484
0.045584
0.050953
0.010606
0.045111
0.047216
0.037507
0.045518
0.040907
0.012010
0.030296
0.032105
0.036245
0.042526
0.027110
0.029136
0.049088
0.025747
0.049427
0.023687
0.029135
0.028086
0.024217
0.032409
0.045727
0.057137
0.034103
0.044671
0.037438
0.031737
0.034004
0.043622
0.027029
0.037463
0.031818
0.018676
0.000000
0.076411
0.067297
0.071268
0.060897
0.064980
0.061777
0.051840
0.047253
0.048339
0.045500
0.052799
0.058829
0.061029
0.066556
0.044624
0.040410
0.000000
0.290836
0.320513
0.273536
0.293769
0.282138
0.092499
0.102835
0.092743
0.126150
0.121535
0.091723
0.112416
0.091489
0.070383
0.241305
0.204450
0.268374
0.232945
0.252803
0.211097
0.284097
0.239014
0.116269
0.121353
0.102283
0.121973
0.106815
0.090819
0.095126
0.095226
0.104707
0.088870
0.100531
0.137817
0.123420
0.098807
0.119127
0.129579
0.136211
0.123471
0.118784
0.110896
0.110696
0.129339
0.117926
0.121445
0.124172
0.054325
0.099415
0.101061
0.029118
0.077023
0.058201
0.330588
0.290001
0.259990
0.323703
0.245425
0.289757
0.240179
0.319583
0.246939
0.260038
0.250747
0.218856
0.239781
0.187780
0.268815
0.172853
0.167937
0.187180
0.219363
0.193176
0.209245
0.239178
0.297390
0.310077
0.271849
0.289261
0.306628
0.290829
0.258244
0.258015
0.264164
0.265205
0.310626
0.254498
0.104355
0.118700
0.141632
0.187239
0.198412
0.226195
0.177386
0.177306
0.220008
0.161347
0.204514
0.105478
0.119825
0.132628
0.126357
0.130664
0.178315
0.073562
0.165546
0.102521
0.144615
0.143448
0.149454
0.155784
0.130761